+ 0 /NodeList/9/DeviceList/0/$ns3::LrWpanNetDevice/Mac/MacTxEnqueue ns3::LrWpanMacHeader (  Frame Type = 1, Sec Enable = 0, Frame Pending = 0, Ack Request = 0, PAN ID Compress = 0, Frame Vers = 1, Dst Addrs Mode = 2, Src Addr Mode = 2, Sequence Num = 247, Dst Addr Pan ID = 10, m_addrShortDstAddr = 80:0a, Src Addr Pan ID = 10, m_addrShortSrcAddr = 00:0a) ns3::SixLowPanIphc (TF_DSCP_ELIDED(0, 1) NH(0) HLIM_COMPR_255(255) CID(0) SAC(1) SAM (0) M(1) DAC(0) DAM (1)) ns3::Icmpv6NS (( type = 135 (NS) code = 0 target = fe80::ff:fe00:a checksum = 122)) ns3::Icmpv6OptionLinkLayerAddress (( type = 1 length = 1 L2 Address = 00-06-02:00:00:00:00:0a)) ns3::LrWpanMacTrailer ( FCS = 0)
t +0.000832s /NodeList/9/DeviceList/0/$ns3::LrWpanNetDevice/Mac/MacTx ns3::LrWpanMacHeader (  Frame Type = 1, Sec Enable = 0, Frame Pending = 0, Ack Request = 0, PAN ID Compress = 0, Frame Vers = 1, Dst Addrs Mode = 2, Src Addr Mode = 2, Sequence Num = 247, Dst Addr Pan ID = 10, m_addrShortDstAddr = 80:0a, Src Addr Pan ID = 10, m_addrShortSrcAddr = 00:0a) ns3::SixLowPanIphc (TF_DSCP_ELIDED(0, 1) NH(0) HLIM_COMPR_255(255) CID(0) SAC(1) SAM (0) M(1) DAC(0) DAM (1)) ns3::Icmpv6NS (( type = 135 (NS) code = 0 target = fe80::ff:fe00:a checksum = 122)) ns3::Icmpv6OptionLinkLayerAddress (( type = 1 length = 1 L2 Address = 00-06-02:00:00:00:00:0a)) ns3::LrWpanMacTrailer ( FCS = 0)
+ 0.002 /NodeList/2/DeviceList/0/$ns3::LrWpanNetDevice/Mac/MacTxEnqueue ns3::LrWpanMacHeader (  Frame Type = 1, Sec Enable = 0, Frame Pending = 0, Ack Request = 0, PAN ID Compress = 0, Frame Vers = 1, Dst Addrs Mode = 2, Src Addr Mode = 2, Sequence Num = 104, Dst Addr Pan ID = 10, m_addrShortDstAddr = 80:03, Src Addr Pan ID = 10, m_addrShortSrcAddr = 00:03) ns3::SixLowPanIphc (TF_DSCP_ELIDED(0, 1) NH(0) HLIM_COMPR_255(255) CID(0) SAC(1) SAM (0) M(1) DAC(0) DAM (1)) ns3::Icmpv6NS (( type = 135 (NS) code = 0 target = fe80::ff:fe00:3 checksum = 5498)) ns3::Icmpv6OptionLinkLayerAddress (( type = 1 length = 1 L2 Address = 00-06-02:00:00:00:00:03)) ns3::LrWpanMacTrailer ( FCS = 0)
+ 0.002 /NodeList/3/DeviceList/0/$ns3::LrWpanNetDevice/Mac/MacTxEnqueue ns3::LrWpanMacHeader (  Frame Type = 1, Sec Enable = 0, Frame Pending = 0, Ack Request = 0, PAN ID Compress = 0, Frame Vers = 1, Dst Addrs Mode = 2, Src Addr Mode = 2, Sequence Num = 243, Dst Addr Pan ID = 10, m_addrShortDstAddr = 80:04, Src Addr Pan ID = 10, m_addrShortSrcAddr = 00:04) ns3::SixLowPanIphc (TF_DSCP_ELIDED(0, 1) NH(0) HLIM_COMPR_255(255) CID(0) SAC(1) SAM (0) M(1) DAC(0) DAM (1)) ns3::Icmpv6NS (( type = 135 (NS) code = 0 target = 2001:1::ff:fe00:4 checksum = 37208)) ns3::Icmpv6OptionLinkLayerAddress (( type = 1 length = 1 L2 Address = 00-06-02:00:00:00:00:04)) ns3::LrWpanMacTrailer ( FCS = 0)
+ 0.002 /NodeList/6/DeviceList/0/$ns3::LrWpanNetDevice/Mac/MacTxEnqueue ns3::LrWpanMacHeader (  Frame Type = 1, Sec Enable = 0, Frame Pending = 0, Ack Request = 0, PAN ID Compress = 0, Frame Vers = 1, Dst Addrs Mode = 2, Src Addr Mode = 2, Sequence Num = 189, Dst Addr Pan ID = 10, m_addrShortDstAddr = 80:07, Src Addr Pan ID = 10, m_addrShortSrcAddr = 00:07) ns3::SixLowPanIphc (TF_DSCP_ELIDED(0, 1) NH(0) HLIM_COMPR_255(255) CID(0) SAC(1) SAM (0) M(1) DAC(0) DAM (1)) ns3::Icmpv6NS (( type = 135 (NS) code = 0 target = 2001:1::ff:fe00:7 checksum = 34904)) ns3::Icmpv6OptionLinkLayerAddress (( type = 1 length = 1 L2 Address = 00-06-02:00:00:00:00:07)) ns3::LrWpanMacTrailer ( FCS = 0)
+ 0.002 /NodeList/8/DeviceList/0/$ns3::LrWpanNetDevice/Mac/MacTxEnqueue ns3::LrWpanMacHeader (  Frame Type = 1, Sec Enable = 0, Frame Pending = 0, Ack Request = 0, PAN ID Compress = 0, Frame Vers = 1, Dst Addrs Mode = 2, Src Addr Mode = 2, Sequence Num = 85, Dst Addr Pan ID = 10, m_addrShortDstAddr = 80:09, Src Addr Pan ID = 10, m_addrShortSrcAddr = 00:09) ns3::SixLowPanIphc (TF_DSCP_ELIDED(0, 1) NH(0) HLIM_COMPR_255(255) CID(0) SAC(1) SAM (0) M(1) DAC(0) DAM (1)) ns3::Icmpv6NS (( type = 135 (NS) code = 0 target = fe80::ff:fe00:9 checksum = 890)) ns3::Icmpv6OptionLinkLayerAddress (( type = 1 length = 1 L2 Address = 00-06-02:00:00:00:00:09)) ns3::LrWpanMacTrailer ( FCS = 0)
- 0.002848 /NodeList/9/DeviceList/0/$ns3::LrWpanNetDevice/Mac/MacTxDequeue ns3::LrWpanMacHeader (  Frame Type = 1, Sec Enable = 0, Frame Pending = 0, Ack Request = 0, PAN ID Compress = 0, Frame Vers = 1, Dst Addrs Mode = 2, Src Addr Mode = 2, Sequence Num = 247, Dst Addr Pan ID = 10, m_addrShortDstAddr = 80:0a, Src Addr Pan ID = 10, m_addrShortSrcAddr = 00:0a) ns3::SixLowPanIphc (TF_DSCP_ELIDED(0, 1) NH(0) HLIM_COMPR_255(255) CID(0) SAC(1) SAM (0) M(1) DAC(0) DAM (1)) ns3::Icmpv6NS (( type = 135 (NS) code = 0 target = fe80::ff:fe00:a checksum = 122)) ns3::Icmpv6OptionLinkLayerAddress (( type = 1 length = 1 L2 Address = 00-06-02:00:00:00:00:0a)) ns3::LrWpanMacTrailer ( FCS = 0)
r 0.002848 /NodeList/1/DeviceList/0/$ns3::LrWpanNetDevice/Mac/MacRx ns3::LrWpanMacHeader (  Frame Type = 1, Sec Enable = 0, Frame Pending = 0, Ack Request = 0, PAN ID Compress = 0, Frame Vers = 1, Dst Addrs Mode = 2, Src Addr Mode = 2, Sequence Num = 247, Dst Addr Pan ID = 10, m_addrShortDstAddr = 80:0a, Src Addr Pan ID = 10, m_addrShortSrcAddr = 00:0a) ns3::SixLowPanIphc (TF_DSCP_ELIDED(0, 1) NH(0) HLIM_COMPR_255(255) CID(0) SAC(1) SAM (0) M(1) DAC(0) DAM (1)) ns3::Icmpv6NS (( type = 135 (NS) code = 0 target = fe80::ff:fe00:a checksum = 122)) ns3::Icmpv6OptionLinkLayerAddress (( type = 1 length = 1 L2 Address = 00-06-02:00:00:00:00:0a)) ns3::LrWpanMacTrailer ( FCS = 0)
r 0.002848 /NodeList/3/DeviceList/0/$ns3::LrWpanNetDevice/Mac/MacRx ns3::LrWpanMacHeader (  Frame Type = 1, Sec Enable = 0, Frame Pending = 0, Ack Request = 0, PAN ID Compress = 0, Frame Vers = 1, Dst Addrs Mode = 2, Src Addr Mode = 2, Sequence Num = 247, Dst Addr Pan ID = 10, m_addrShortDstAddr = 80:0a, Src Addr Pan ID = 10, m_addrShortSrcAddr = 00:0a) ns3::SixLowPanIphc (TF_DSCP_ELIDED(0, 1) NH(0) HLIM_COMPR_255(255) CID(0) SAC(1) SAM (0) M(1) DAC(0) DAM (1)) ns3::Icmpv6NS (( type = 135 (NS) code = 0 target = fe80::ff:fe00:a checksum = 122)) ns3::Icmpv6OptionLinkLayerAddress (( type = 1 length = 1 L2 Address = 00-06-02:00:00:00:00:0a)) ns3::LrWpanMacTrailer ( FCS = 0)
r 0.002848 /NodeList/5/DeviceList/0/$ns3::LrWpanNetDevice/Mac/MacRx ns3::LrWpanMacHeader (  Frame Type = 1, Sec Enable = 0, Frame Pending = 0, Ack Request = 0, PAN ID Compress = 0, Frame Vers = 1, Dst Addrs Mode = 2, Src Addr Mode = 2, Sequence Num = 247, Dst Addr Pan ID = 10, m_addrShortDstAddr = 80:0a, Src Addr Pan ID = 10, m_addrShortSrcAddr = 00:0a) ns3::SixLowPanIphc (TF_DSCP_ELIDED(0, 1) NH(0) HLIM_COMPR_255(255) CID(0) SAC(1) SAM (0) M(1) DAC(0) DAM (1)) ns3::Icmpv6NS (( type = 135 (NS) code = 0 target = fe80::ff:fe00:a checksum = 122)) ns3::Icmpv6OptionLinkLayerAddress (( type = 1 length = 1 L2 Address = 00-06-02:00:00:00:00:0a)) ns3::LrWpanMacTrailer ( FCS = 0)
r 0.002848 /NodeList/7/DeviceList/0/$ns3::LrWpanNetDevice/Mac/MacRx ns3::LrWpanMacHeader (  Frame Type = 1, Sec Enable = 0, Frame Pending = 0, Ack Request = 0, PAN ID Compress = 0, Frame Vers = 1, Dst Addrs Mode = 2, Src Addr Mode = 2, Sequence Num = 247, Dst Addr Pan ID = 10, m_addrShortDstAddr = 80:0a, Src Addr Pan ID = 10, m_addrShortSrcAddr = 00:0a) ns3::SixLowPanIphc (TF_DSCP_ELIDED(0, 1) NH(0) HLIM_COMPR_255(255) CID(0) SAC(1) SAM (0) M(1) DAC(0) DAM (1)) ns3::Icmpv6NS (( type = 135 (NS) code = 0 target = fe80::ff:fe00:a checksum = 122)) ns3::Icmpv6OptionLinkLayerAddress (( type = 1 length = 1 L2 Address = 00-06-02:00:00:00:00:0a)) ns3::LrWpanMacTrailer ( FCS = 0)
r 0.00284817 /NodeList/0/DeviceList/0/$ns3::LrWpanNetDevice/Mac/MacRx ns3::LrWpanMacHeader (  Frame Type = 1, Sec Enable = 0, Frame Pending = 0, Ack Request = 0, PAN ID Compress = 0, Frame Vers = 1, Dst Addrs Mode = 2, Src Addr Mode = 2, Sequence Num = 247, Dst Addr Pan ID = 10, m_addrShortDstAddr = 80:0a, Src Addr Pan ID = 10, m_addrShortSrcAddr = 00:0a) ns3::SixLowPanIphc (TF_DSCP_ELIDED(0, 1) NH(0) HLIM_COMPR_255(255) CID(0) SAC(1) SAM (0) M(1) DAC(0) DAM (1)) ns3::Icmpv6NS (( type = 135 (NS) code = 0 target = fe80::ff:fe00:a checksum = 122)) ns3::Icmpv6OptionLinkLayerAddress (( type = 1 length = 1 L2 Address = 00-06-02:00:00:00:00:0a)) ns3::LrWpanMacTrailer ( FCS = 0)
r 0.00284817 /NodeList/2/DeviceList/0/$ns3::LrWpanNetDevice/Mac/MacRx ns3::LrWpanMacHeader (  Frame Type = 1, Sec Enable = 0, Frame Pending = 0, Ack Request = 0, PAN ID Compress = 0, Frame Vers = 1, Dst Addrs Mode = 2, Src Addr Mode = 2, Sequence Num = 247, Dst Addr Pan ID = 10, m_addrShortDstAddr = 80:0a, Src Addr Pan ID = 10, m_addrShortSrcAddr = 00:0a) ns3::SixLowPanIphc (TF_DSCP_ELIDED(0, 1) NH(0) HLIM_COMPR_255(255) CID(0) SAC(1) SAM (0) M(1) DAC(0) DAM (1)) ns3::Icmpv6NS (( type = 135 (NS) code = 0 target = fe80::ff:fe00:a checksum = 122)) ns3::Icmpv6OptionLinkLayerAddress (( type = 1 length = 1 L2 Address = 00-06-02:00:00:00:00:0a)) ns3::LrWpanMacTrailer ( FCS = 0)
r 0.00284817 /NodeList/4/DeviceList/0/$ns3::LrWpanNetDevice/Mac/MacRx ns3::LrWpanMacHeader (  Frame Type = 1, Sec Enable = 0, Frame Pending = 0, Ack Request = 0, PAN ID Compress = 0, Frame Vers = 1, Dst Addrs Mode = 2, Src Addr Mode = 2, Sequence Num = 247, Dst Addr Pan ID = 10, m_addrShortDstAddr = 80:0a, Src Addr Pan ID = 10, m_addrShortSrcAddr = 00:0a) ns3::SixLowPanIphc (TF_DSCP_ELIDED(0, 1) NH(0) HLIM_COMPR_255(255) CID(0) SAC(1) SAM (0) M(1) DAC(0) DAM (1)) ns3::Icmpv6NS (( type = 135 (NS) code = 0 target = fe80::ff:fe00:a checksum = 122)) ns3::Icmpv6OptionLinkLayerAddress (( type = 1 length = 1 L2 Address = 00-06-02:00:00:00:00:0a)) ns3::LrWpanMacTrailer ( FCS = 0)
r 0.00284817 /NodeList/6/DeviceList/0/$ns3::LrWpanNetDevice/Mac/MacRx ns3::LrWpanMacHeader (  Frame Type = 1, Sec Enable = 0, Frame Pending = 0, Ack Request = 0, PAN ID Compress = 0, Frame Vers = 1, Dst Addrs Mode = 2, Src Addr Mode = 2, Sequence Num = 247, Dst Addr Pan ID = 10, m_addrShortDstAddr = 80:0a, Src Addr Pan ID = 10, m_addrShortSrcAddr = 00:0a) ns3::SixLowPanIphc (TF_DSCP_ELIDED(0, 1) NH(0) HLIM_COMPR_255(255) CID(0) SAC(1) SAM (0) M(1) DAC(0) DAM (1)) ns3::Icmpv6NS (( type = 135 (NS) code = 0 target = fe80::ff:fe00:a checksum = 122)) ns3::Icmpv6OptionLinkLayerAddress (( type = 1 length = 1 L2 Address = 00-06-02:00:00:00:00:0a)) ns3::LrWpanMacTrailer ( FCS = 0)
r 0.00284817 /NodeList/8/DeviceList/0/$ns3::LrWpanNetDevice/Mac/MacRx ns3::LrWpanMacHeader (  Frame Type = 1, Sec Enable = 0, Frame Pending = 0, Ack Request = 0, PAN ID Compress = 0, Frame Vers = 1, Dst Addrs Mode = 2, Src Addr Mode = 2, Sequence Num = 247, Dst Addr Pan ID = 10, m_addrShortDstAddr = 80:0a, Src Addr Pan ID = 10, m_addrShortSrcAddr = 00:0a) ns3::SixLowPanIphc (TF_DSCP_ELIDED(0, 1) NH(0) HLIM_COMPR_255(255) CID(0) SAC(1) SAM (0) M(1) DAC(0) DAM (1)) ns3::Icmpv6NS (( type = 135 (NS) code = 0 target = fe80::ff:fe00:a checksum = 122)) ns3::Icmpv6OptionLinkLayerAddress (( type = 1 length = 1 L2 Address = 00-06-02:00:00:00:00:0a)) ns3::LrWpanMacTrailer ( FCS = 0)
+ 0.003 /NodeList/1/DeviceList/0/$ns3::LrWpanNetDevice/Mac/MacTxEnqueue ns3::LrWpanMacHeader (  Frame Type = 1, Sec Enable = 0, Frame Pending = 0, Ack Request = 0, PAN ID Compress = 0, Frame Vers = 1, Dst Addrs Mode = 2, Src Addr Mode = 2, Sequence Num = 131, Dst Addr Pan ID = 10, m_addrShortDstAddr = 80:02, Src Addr Pan ID = 10, m_addrShortSrcAddr = 00:02) ns3::SixLowPanIphc (TF_DSCP_ELIDED(0, 1) NH(0) HLIM_COMPR_255(255) CID(0) SAC(1) SAM (0) M(1) DAC(0) DAM (1)) ns3::Icmpv6NS (( type = 135 (NS) code = 0 target = fe80::ff:fe00:2 checksum = 6266)) ns3::Icmpv6OptionLinkLayerAddress (( type = 1 length = 1 L2 Address = 00-06-02:00:00:00:00:02)) ns3::LrWpanMacTrailer ( FCS = 0)
t +0.00328s /NodeList/3/DeviceList/0/$ns3::LrWpanNetDevice/Mac/MacTx ns3::LrWpanMacHeader (  Frame Type = 1, Sec Enable = 0, Frame Pending = 0, Ack Request = 0, PAN ID Compress = 0, Frame Vers = 1, Dst Addrs Mode = 2, Src Addr Mode = 2, Sequence Num = 243, Dst Addr Pan ID = 10, m_addrShortDstAddr = 80:04, Src Addr Pan ID = 10, m_addrShortSrcAddr = 00:04) ns3::SixLowPanIphc (TF_DSCP_ELIDED(0, 1) NH(0) HLIM_COMPR_255(255) CID(0) SAC(1) SAM (0) M(1) DAC(0) DAM (1)) ns3::Icmpv6NS (( type = 135 (NS) code = 0 target = 2001:1::ff:fe00:4 checksum = 37208)) ns3::Icmpv6OptionLinkLayerAddress (( type = 1 length = 1 L2 Address = 00-06-02:00:00:00:00:04)) ns3::LrWpanMacTrailer ( FCS = 0)
t +0.00328s /NodeList/6/DeviceList/0/$ns3::LrWpanNetDevice/Mac/MacTx ns3::LrWpanMacHeader (  Frame Type = 1, Sec Enable = 0, Frame Pending = 0, Ack Request = 0, PAN ID Compress = 0, Frame Vers = 1, Dst Addrs Mode = 2, Src Addr Mode = 2, Sequence Num = 189, Dst Addr Pan ID = 10, m_addrShortDstAddr = 80:07, Src Addr Pan ID = 10, m_addrShortSrcAddr = 00:07) ns3::SixLowPanIphc (TF_DSCP_ELIDED(0, 1) NH(0) HLIM_COMPR_255(255) CID(0) SAC(1) SAM (0) M(1) DAC(0) DAM (1)) ns3::Icmpv6NS (( type = 135 (NS) code = 0 target = 2001:1::ff:fe00:7 checksum = 34904)) ns3::Icmpv6OptionLinkLayerAddress (( type = 1 length = 1 L2 Address = 00-06-02:00:00:00:00:07)) ns3::LrWpanMacTrailer ( FCS = 0)
t +0.00332s /NodeList/1/DeviceList/0/$ns3::LrWpanNetDevice/Mac/MacTx ns3::LrWpanMacHeader (  Frame Type = 1, Sec Enable = 0, Frame Pending = 0, Ack Request = 0, PAN ID Compress = 0, Frame Vers = 1, Dst Addrs Mode = 2, Src Addr Mode = 2, Sequence Num = 131, Dst Addr Pan ID = 10, m_addrShortDstAddr = 80:02, Src Addr Pan ID = 10, m_addrShortSrcAddr = 00:02) ns3::SixLowPanIphc (TF_DSCP_ELIDED(0, 1) NH(0) HLIM_COMPR_255(255) CID(0) SAC(1) SAM (0) M(1) DAC(0) DAM (1)) ns3::Icmpv6NS (( type = 135 (NS) code = 0 target = fe80::ff:fe00:2 checksum = 6266)) ns3::Icmpv6OptionLinkLayerAddress (( type = 1 length = 1 L2 Address = 00-06-02:00:00:00:00:02)) ns3::LrWpanMacTrailer ( FCS = 0)
+ 0.004 /NodeList/1/DeviceList/0/$ns3::LrWpanNetDevice/Mac/MacTxEnqueue ns3::LrWpanMacHeader (  Frame Type = 1, Sec Enable = 0, Frame Pending = 0, Ack Request = 0, PAN ID Compress = 0, Frame Vers = 1, Dst Addrs Mode = 2, Src Addr Mode = 2, Sequence Num = 132, Dst Addr Pan ID = 10, m_addrShortDstAddr = 80:02, Src Addr Pan ID = 10, m_addrShortSrcAddr = 00:02) ns3::SixLowPanIphc (TF_DSCP_ELIDED(0, 1) NH(0) HLIM_COMPR_255(255) CID(0) SAC(1) SAM (0) M(1) DAC(0) DAM (1)) ns3::Icmpv6NS (( type = 135 (NS) code = 0 target = 2001:1::ff:fe00:2 checksum = 38744)) ns3::Icmpv6OptionLinkLayerAddress (( type = 1 length = 1 L2 Address = 00-06-02:00:00:00:00:02)) ns3::LrWpanMacTrailer ( FCS = 0)
+ 0.004 /NodeList/4/DeviceList/0/$ns3::LrWpanNetDevice/Mac/MacTxEnqueue ns3::LrWpanMacHeader (  Frame Type = 1, Sec Enable = 0, Frame Pending = 0, Ack Request = 0, PAN ID Compress = 0, Frame Vers = 1, Dst Addrs Mode = 2, Src Addr Mode = 2, Sequence Num = 139, Dst Addr Pan ID = 10, m_addrShortDstAddr = 80:05, Src Addr Pan ID = 10, m_addrShortSrcAddr = 00:05) ns3::SixLowPanIphc (TF_DSCP_ELIDED(0, 1) NH(0) HLIM_COMPR_255(255) CID(0) SAC(1) SAM (0) M(1) DAC(0) DAM (1)) ns3::Icmpv6NS (( type = 135 (NS) code = 0 target = 2001:1::ff:fe00:5 checksum = 36440)) ns3::Icmpv6OptionLinkLayerAddress (( type = 1 length = 1 L2 Address = 00-06-02:00:00:00:00:05)) ns3::LrWpanMacTrailer ( FCS = 0)
+ 0.005 /NodeList/5/DeviceList/0/$ns3::LrWpanNetDevice/Mac/MacTxEnqueue ns3::LrWpanMacHeader (  Frame Type = 1, Sec Enable = 0, Frame Pending = 0, Ack Request = 0, PAN ID Compress = 0, Frame Vers = 1, Dst Addrs Mode = 2, Src Addr Mode = 2, Sequence Num = 159, Dst Addr Pan ID = 10, m_addrShortDstAddr = 80:06, Src Addr Pan ID = 10, m_addrShortSrcAddr = 00:06) ns3::SixLowPanIphc (TF_DSCP_ELIDED(0, 1) NH(0) HLIM_COMPR_255(255) CID(0) SAC(1) SAM (0) M(1) DAC(0) DAM (1)) ns3::Icmpv6NS (( type = 135 (NS) code = 0 target = fe80::ff:fe00:6 checksum = 3194)) ns3::Icmpv6OptionLinkLayerAddress (( type = 1 length = 1 L2 Address = 00-06-02:00:00:00:00:06)) ns3::LrWpanMacTrailer ( FCS = 0)
+ 0.005 /NodeList/9/DeviceList/0/$ns3::LrWpanNetDevice/Mac/MacTxEnqueue ns3::LrWpanMacHeader (  Frame Type = 1, Sec Enable = 0, Frame Pending = 0, Ack Request = 0, PAN ID Compress = 0, Frame Vers = 1, Dst Addrs Mode = 2, Src Addr Mode = 2, Sequence Num = 248, Dst Addr Pan ID = 10, m_addrShortDstAddr = 80:0a, Src Addr Pan ID = 10, m_addrShortSrcAddr = 00:0a) ns3::SixLowPanIphc (TF_DSCP_ELIDED(0, 1) NH(0) HLIM_COMPR_255(255) CID(0) SAC(1) SAM (0) M(1) DAC(0) DAM (1)) ns3::Icmpv6NS (( type = 135 (NS) code = 0 target = 2001:1::ff:fe00:a checksum = 32600)) ns3::Icmpv6OptionLinkLayerAddress (( type = 1 length = 1 L2 Address = 00-06-02:00:00:00:00:0a)) ns3::LrWpanMacTrailer ( FCS = 0)
- 0.005296 /NodeList/3/DeviceList/0/$ns3::LrWpanNetDevice/Mac/MacTxDequeue ns3::LrWpanMacHeader (  Frame Type = 1, Sec Enable = 0, Frame Pending = 0, Ack Request = 0, PAN ID Compress = 0, Frame Vers = 1, Dst Addrs Mode = 2, Src Addr Mode = 2, Sequence Num = 243, Dst Addr Pan ID = 10, m_addrShortDstAddr = 80:04, Src Addr Pan ID = 10, m_addrShortSrcAddr = 00:04) ns3::SixLowPanIphc (TF_DSCP_ELIDED(0, 1) NH(0) HLIM_COMPR_255(255) CID(0) SAC(1) SAM (0) M(1) DAC(0) DAM (1)) ns3::Icmpv6NS (( type = 135 (NS) code = 0 target = 2001:1::ff:fe00:4 checksum = 37208)) ns3::Icmpv6OptionLinkLayerAddress (( type = 1 length = 1 L2 Address = 00-06-02:00:00:00:00:04)) ns3::LrWpanMacTrailer ( FCS = 0)
- 0.005296 /NodeList/6/DeviceList/0/$ns3::LrWpanNetDevice/Mac/MacTxDequeue ns3::LrWpanMacHeader (  Frame Type = 1, Sec Enable = 0, Frame Pending = 0, Ack Request = 0, PAN ID Compress = 0, Frame Vers = 1, Dst Addrs Mode = 2, Src Addr Mode = 2, Sequence Num = 189, Dst Addr Pan ID = 10, m_addrShortDstAddr = 80:07, Src Addr Pan ID = 10, m_addrShortSrcAddr = 00:07) ns3::SixLowPanIphc (TF_DSCP_ELIDED(0, 1) NH(0) HLIM_COMPR_255(255) CID(0) SAC(1) SAM (0) M(1) DAC(0) DAM (1)) ns3::Icmpv6NS (( type = 135 (NS) code = 0 target = 2001:1::ff:fe00:7 checksum = 34904)) ns3::Icmpv6OptionLinkLayerAddress (( type = 1 length = 1 L2 Address = 00-06-02:00:00:00:00:07)) ns3::LrWpanMacTrailer ( FCS = 0)
r 0.005296 /NodeList/5/DeviceList/0/$ns3::LrWpanNetDevice/Mac/MacRx ns3::LrWpanMacHeader (  Frame Type = 1, Sec Enable = 0, Frame Pending = 0, Ack Request = 0, PAN ID Compress = 0, Frame Vers = 1, Dst Addrs Mode = 2, Src Addr Mode = 2, Sequence Num = 243, Dst Addr Pan ID = 10, m_addrShortDstAddr = 80:04, Src Addr Pan ID = 10, m_addrShortSrcAddr = 00:04) ns3::SixLowPanIphc (TF_DSCP_ELIDED(0, 1) NH(0) HLIM_COMPR_255(255) CID(0) SAC(1) SAM (0) M(1) DAC(0) DAM (1)) ns3::Icmpv6NS (( type = 135 (NS) code = 0 target = 2001:1::ff:fe00:4 checksum = 37208)) ns3::Icmpv6OptionLinkLayerAddress (( type = 1 length = 1 L2 Address = 00-06-02:00:00:00:00:04)) ns3::LrWpanMacTrailer ( FCS = 0)
r 0.005296 /NodeList/7/DeviceList/0/$ns3::LrWpanNetDevice/Mac/MacRx ns3::LrWpanMacHeader (  Frame Type = 1, Sec Enable = 0, Frame Pending = 0, Ack Request = 0, PAN ID Compress = 0, Frame Vers = 1, Dst Addrs Mode = 2, Src Addr Mode = 2, Sequence Num = 243, Dst Addr Pan ID = 10, m_addrShortDstAddr = 80:04, Src Addr Pan ID = 10, m_addrShortSrcAddr = 00:04) ns3::SixLowPanIphc (TF_DSCP_ELIDED(0, 1) NH(0) HLIM_COMPR_255(255) CID(0) SAC(1) SAM (0) M(1) DAC(0) DAM (1)) ns3::Icmpv6NS (( type = 135 (NS) code = 0 target = 2001:1::ff:fe00:4 checksum = 37208)) ns3::Icmpv6OptionLinkLayerAddress (( type = 1 length = 1 L2 Address = 00-06-02:00:00:00:00:04)) ns3::LrWpanMacTrailer ( FCS = 0)
r 0.005296 /NodeList/9/DeviceList/0/$ns3::LrWpanNetDevice/Mac/MacRx ns3::LrWpanMacHeader (  Frame Type = 1, Sec Enable = 0, Frame Pending = 0, Ack Request = 0, PAN ID Compress = 0, Frame Vers = 1, Dst Addrs Mode = 2, Src Addr Mode = 2, Sequence Num = 243, Dst Addr Pan ID = 10, m_addrShortDstAddr = 80:04, Src Addr Pan ID = 10, m_addrShortSrcAddr = 00:04) ns3::SixLowPanIphc (TF_DSCP_ELIDED(0, 1) NH(0) HLIM_COMPR_255(255) CID(0) SAC(1) SAM (0) M(1) DAC(0) DAM (1)) ns3::Icmpv6NS (( type = 135 (NS) code = 0 target = 2001:1::ff:fe00:4 checksum = 37208)) ns3::Icmpv6OptionLinkLayerAddress (( type = 1 length = 1 L2 Address = 00-06-02:00:00:00:00:04)) ns3::LrWpanMacTrailer ( FCS = 0)
r 0.005296 /NodeList/0/DeviceList/0/$ns3::LrWpanNetDevice/Mac/MacRx ns3::LrWpanMacHeader (  Frame Type = 1, Sec Enable = 0, Frame Pending = 0, Ack Request = 0, PAN ID Compress = 0, Frame Vers = 1, Dst Addrs Mode = 2, Src Addr Mode = 2, Sequence Num = 189, Dst Addr Pan ID = 10, m_addrShortDstAddr = 80:07, Src Addr Pan ID = 10, m_addrShortSrcAddr = 00:07) ns3::SixLowPanIphc (TF_DSCP_ELIDED(0, 1) NH(0) HLIM_COMPR_255(255) CID(0) SAC(1) SAM (0) M(1) DAC(0) DAM (1)) ns3::Icmpv6NS (( type = 135 (NS) code = 0 target = 2001:1::ff:fe00:7 checksum = 34904)) ns3::Icmpv6OptionLinkLayerAddress (( type = 1 length = 1 L2 Address = 00-06-02:00:00:00:00:07)) ns3::LrWpanMacTrailer ( FCS = 0)
r 0.005296 /NodeList/2/DeviceList/0/$ns3::LrWpanNetDevice/Mac/MacRx ns3::LrWpanMacHeader (  Frame Type = 1, Sec Enable = 0, Frame Pending = 0, Ack Request = 0, PAN ID Compress = 0, Frame Vers = 1, Dst Addrs Mode = 2, Src Addr Mode = 2, Sequence Num = 189, Dst Addr Pan ID = 10, m_addrShortDstAddr = 80:07, Src Addr Pan ID = 10, m_addrShortSrcAddr = 00:07) ns3::SixLowPanIphc (TF_DSCP_ELIDED(0, 1) NH(0) HLIM_COMPR_255(255) CID(0) SAC(1) SAM (0) M(1) DAC(0) DAM (1)) ns3::Icmpv6NS (( type = 135 (NS) code = 0 target = 2001:1::ff:fe00:7 checksum = 34904)) ns3::Icmpv6OptionLinkLayerAddress (( type = 1 length = 1 L2 Address = 00-06-02:00:00:00:00:07)) ns3::LrWpanMacTrailer ( FCS = 0)
r 0.005296 /NodeList/4/DeviceList/0/$ns3::LrWpanNetDevice/Mac/MacRx ns3::LrWpanMacHeader (  Frame Type = 1, Sec Enable = 0, Frame Pending = 0, Ack Request = 0, PAN ID Compress = 0, Frame Vers = 1, Dst Addrs Mode = 2, Src Addr Mode = 2, Sequence Num = 189, Dst Addr Pan ID = 10, m_addrShortDstAddr = 80:07, Src Addr Pan ID = 10, m_addrShortSrcAddr = 00:07) ns3::SixLowPanIphc (TF_DSCP_ELIDED(0, 1) NH(0) HLIM_COMPR_255(255) CID(0) SAC(1) SAM (0) M(1) DAC(0) DAM (1)) ns3::Icmpv6NS (( type = 135 (NS) code = 0 target = 2001:1::ff:fe00:7 checksum = 34904)) ns3::Icmpv6OptionLinkLayerAddress (( type = 1 length = 1 L2 Address = 00-06-02:00:00:00:00:07)) ns3::LrWpanMacTrailer ( FCS = 0)
r 0.005296 /NodeList/8/DeviceList/0/$ns3::LrWpanNetDevice/Mac/MacRx ns3::LrWpanMacHeader (  Frame Type = 1, Sec Enable = 0, Frame Pending = 0, Ack Request = 0, PAN ID Compress = 0, Frame Vers = 1, Dst Addrs Mode = 2, Src Addr Mode = 2, Sequence Num = 189, Dst Addr Pan ID = 10, m_addrShortDstAddr = 80:07, Src Addr Pan ID = 10, m_addrShortSrcAddr = 00:07) ns3::SixLowPanIphc (TF_DSCP_ELIDED(0, 1) NH(0) HLIM_COMPR_255(255) CID(0) SAC(1) SAM (0) M(1) DAC(0) DAM (1)) ns3::Icmpv6NS (( type = 135 (NS) code = 0 target = 2001:1::ff:fe00:7 checksum = 34904)) ns3::Icmpv6OptionLinkLayerAddress (( type = 1 length = 1 L2 Address = 00-06-02:00:00:00:00:07)) ns3::LrWpanMacTrailer ( FCS = 0)
- 0.005336 /NodeList/1/DeviceList/0/$ns3::LrWpanNetDevice/Mac/MacTxDequeue ns3::LrWpanMacHeader (  Frame Type = 1, Sec Enable = 0, Frame Pending = 0, Ack Request = 0, PAN ID Compress = 0, Frame Vers = 1, Dst Addrs Mode = 2, Src Addr Mode = 2, Sequence Num = 131, Dst Addr Pan ID = 10, m_addrShortDstAddr = 80:02, Src Addr Pan ID = 10, m_addrShortSrcAddr = 00:02) ns3::SixLowPanIphc (TF_DSCP_ELIDED(0, 1) NH(0) HLIM_COMPR_255(255) CID(0) SAC(1) SAM (0) M(1) DAC(0) DAM (1)) ns3::Icmpv6NS (( type = 135 (NS) code = 0 target = fe80::ff:fe00:2 checksum = 6266)) ns3::Icmpv6OptionLinkLayerAddress (( type = 1 length = 1 L2 Address = 00-06-02:00:00:00:00:02)) ns3::LrWpanMacTrailer ( FCS = 0)
t +0.005648s /NodeList/8/DeviceList/0/$ns3::LrWpanNetDevice/Mac/MacTx ns3::LrWpanMacHeader (  Frame Type = 1, Sec Enable = 0, Frame Pending = 0, Ack Request = 0, PAN ID Compress = 0, Frame Vers = 1, Dst Addrs Mode = 2, Src Addr Mode = 2, Sequence Num = 85, Dst Addr Pan ID = 10, m_addrShortDstAddr = 80:09, Src Addr Pan ID = 10, m_addrShortSrcAddr = 00:09) ns3::SixLowPanIphc (TF_DSCP_ELIDED(0, 1) NH(0) HLIM_COMPR_255(255) CID(0) SAC(1) SAM (0) M(1) DAC(0) DAM (1)) ns3::Icmpv6NS (( type = 135 (NS) code = 0 target = fe80::ff:fe00:9 checksum = 890)) ns3::Icmpv6OptionLinkLayerAddress (( type = 1 length = 1 L2 Address = 00-06-02:00:00:00:00:09)) ns3::LrWpanMacTrailer ( FCS = 0)
+ 0.006 /NodeList/0/DeviceList/0/$ns3::LrWpanNetDevice/Mac/MacTxEnqueue ns3::LrWpanMacHeader (  Frame Type = 1, Sec Enable = 0, Frame Pending = 0, Ack Request = 0, PAN ID Compress = 0, Frame Vers = 1, Dst Addrs Mode = 2, Src Addr Mode = 2, Sequence Num = 87, Dst Addr Pan ID = 10, m_addrShortDstAddr = 80:01, Src Addr Pan ID = 10, m_addrShortSrcAddr = 00:01) ns3::SixLowPanIphc (TF_DSCP_ELIDED(0, 1) NH(0) HLIM_COMPR_255(255) CID(0) SAC(1) SAM (0) M(1) DAC(0) DAM (1)) ns3::Icmpv6NS (( type = 135 (NS) code = 0 target = 2001:1::ff:fe00:1 checksum = 39512)) ns3::Icmpv6OptionLinkLayerAddress (( type = 1 length = 1 L2 Address = 00-06-02:00:00:00:00:01)) ns3::LrWpanMacTrailer ( FCS = 0)
+ 0.006 /NodeList/2/DeviceList/0/$ns3::LrWpanNetDevice/Mac/MacTxEnqueue ns3::LrWpanMacHeader (  Frame Type = 1, Sec Enable = 0, Frame Pending = 0, Ack Request = 0, PAN ID Compress = 0, Frame Vers = 1, Dst Addrs Mode = 2, Src Addr Mode = 2, Sequence Num = 105, Dst Addr Pan ID = 10, m_addrShortDstAddr = 80:03, Src Addr Pan ID = 10, m_addrShortSrcAddr = 00:03) ns3::SixLowPanIphc (TF_DSCP_ELIDED(0, 1) NH(0) HLIM_COMPR_255(255) CID(0) SAC(1) SAM (0) M(1) DAC(0) DAM (1)) ns3::Icmpv6NS (( type = 135 (NS) code = 0 target = 2001:1::ff:fe00:3 checksum = 37976)) ns3::Icmpv6OptionLinkLayerAddress (( type = 1 length = 1 L2 Address = 00-06-02:00:00:00:00:03)) ns3::LrWpanMacTrailer ( FCS = 0)
+ 0.006 /NodeList/3/DeviceList/0/$ns3::LrWpanNetDevice/Mac/MacTxEnqueue ns3::LrWpanMacHeader (  Frame Type = 1, Sec Enable = 0, Frame Pending = 0, Ack Request = 0, PAN ID Compress = 0, Frame Vers = 1, Dst Addrs Mode = 2, Src Addr Mode = 2, Sequence Num = 244, Dst Addr Pan ID = 10, m_addrShortDstAddr = 80:04, Src Addr Pan ID = 10, m_addrShortSrcAddr = 00:04) ns3::SixLowPanIphc (TF_DSCP_ELIDED(0, 1) NH(0) HLIM_COMPR_255(255) CID(0) SAC(1) SAM (0) M(1) DAC(0) DAM (1)) ns3::Icmpv6NS (( type = 135 (NS) code = 0 target = fe80::ff:fe00:4 checksum = 4730)) ns3::Icmpv6OptionLinkLayerAddress (( type = 1 length = 1 L2 Address = 00-06-02:00:00:00:00:04)) ns3::LrWpanMacTrailer ( FCS = 0)
+ 0.006 /NodeList/6/DeviceList/0/$ns3::LrWpanNetDevice/Mac/MacTxEnqueue ns3::LrWpanMacHeader (  Frame Type = 1, Sec Enable = 0, Frame Pending = 0, Ack Request = 0, PAN ID Compress = 0, Frame Vers = 1, Dst Addrs Mode = 2, Src Addr Mode = 2, Sequence Num = 190, Dst Addr Pan ID = 10, m_addrShortDstAddr = 80:07, Src Addr Pan ID = 10, m_addrShortSrcAddr = 00:07) ns3::SixLowPanIphc (TF_DSCP_ELIDED(0, 1) NH(0) HLIM_COMPR_255(255) CID(0) SAC(1) SAM (0) M(1) DAC(0) DAM (1)) ns3::Icmpv6NS (( type = 135 (NS) code = 0 target = fe80::ff:fe00:7 checksum = 2426)) ns3::Icmpv6OptionLinkLayerAddress (( type = 1 length = 1 L2 Address = 00-06-02:00:00:00:00:07)) ns3::LrWpanMacTrailer ( FCS = 0)
+ 0.006 /NodeList/7/DeviceList/0/$ns3::LrWpanNetDevice/Mac/MacTxEnqueue ns3::LrWpanMacHeader (  Frame Type = 1, Sec Enable = 0, Frame Pending = 0, Ack Request = 0, PAN ID Compress = 0, Frame Vers = 1, Dst Addrs Mode = 2, Src Addr Mode = 2, Sequence Num = 240, Dst Addr Pan ID = 10, m_addrShortDstAddr = 80:08, Src Addr Pan ID = 10, m_addrShortSrcAddr = 00:08) ns3::SixLowPanIphc (TF_DSCP_ELIDED(0, 1) NH(0) HLIM_COMPR_255(255) CID(0) SAC(1) SAM (0) M(1) DAC(0) DAM (1)) ns3::Icmpv6NS (( type = 135 (NS) code = 0 target = 2001:1::ff:fe00:8 checksum = 34136)) ns3::Icmpv6OptionLinkLayerAddress (( type = 1 length = 1 L2 Address = 00-06-02:00:00:00:00:08)) ns3::LrWpanMacTrailer ( FCS = 0)
+ 0.007 /NodeList/7/DeviceList/0/$ns3::LrWpanNetDevice/Mac/MacTxEnqueue ns3::LrWpanMacHeader (  Frame Type = 1, Sec Enable = 0, Frame Pending = 0, Ack Request = 0, PAN ID Compress = 0, Frame Vers = 1, Dst Addrs Mode = 2, Src Addr Mode = 2, Sequence Num = 241, Dst Addr Pan ID = 10, m_addrShortDstAddr = 80:08, Src Addr Pan ID = 10, m_addrShortSrcAddr = 00:08) ns3::SixLowPanIphc (TF_DSCP_ELIDED(0, 1) NH(0) HLIM_COMPR_255(255) CID(0) SAC(1) SAM (0) M(1) DAC(0) DAM (1)) ns3::Icmpv6NS (( type = 135 (NS) code = 0 target = fe80::ff:fe00:8 checksum = 1658)) ns3::Icmpv6OptionLinkLayerAddress (( type = 1 length = 1 L2 Address = 00-06-02:00:00:00:00:08)) ns3::LrWpanMacTrailer ( FCS = 0)
- 0.007664 /NodeList/8/DeviceList/0/$ns3::LrWpanNetDevice/Mac/MacTxDequeue ns3::LrWpanMacHeader (  Frame Type = 1, Sec Enable = 0, Frame Pending = 0, Ack Request = 0, PAN ID Compress = 0, Frame Vers = 1, Dst Addrs Mode = 2, Src Addr Mode = 2, Sequence Num = 85, Dst Addr Pan ID = 10, m_addrShortDstAddr = 80:09, Src Addr Pan ID = 10, m_addrShortSrcAddr = 00:09) ns3::SixLowPanIphc (TF_DSCP_ELIDED(0, 1) NH(0) HLIM_COMPR_255(255) CID(0) SAC(1) SAM (0) M(1) DAC(0) DAM (1)) ns3::Icmpv6NS (( type = 135 (NS) code = 0 target = fe80::ff:fe00:9 checksum = 890)) ns3::Icmpv6OptionLinkLayerAddress (( type = 1 length = 1 L2 Address = 00-06-02:00:00:00:00:09)) ns3::LrWpanMacTrailer ( FCS = 0)
r 0.007664 /NodeList/0/DeviceList/0/$ns3::LrWpanNetDevice/Mac/MacRx ns3::LrWpanMacHeader (  Frame Type = 1, Sec Enable = 0, Frame Pending = 0, Ack Request = 0, PAN ID Compress = 0, Frame Vers = 1, Dst Addrs Mode = 2, Src Addr Mode = 2, Sequence Num = 85, Dst Addr Pan ID = 10, m_addrShortDstAddr = 80:09, Src Addr Pan ID = 10, m_addrShortSrcAddr = 00:09) ns3::SixLowPanIphc (TF_DSCP_ELIDED(0, 1) NH(0) HLIM_COMPR_255(255) CID(0) SAC(1) SAM (0) M(1) DAC(0) DAM (1)) ns3::Icmpv6NS (( type = 135 (NS) code = 0 target = fe80::ff:fe00:9 checksum = 890)) ns3::Icmpv6OptionLinkLayerAddress (( type = 1 length = 1 L2 Address = 00-06-02:00:00:00:00:09)) ns3::LrWpanMacTrailer ( FCS = 0)